4
Lattice="4.340235246277348 0.0 0.0 0.0 4.340235246277348 0.0 0.0 0.0 4.340235246277348" Properties=species:S:1:pos:R:3:forces:R:3:energies:R:1 n_minim_iter=1 energy=-14.126649820492155 stress="0.06246499906561758 6.784236835346853e-16 1.1601628464636932e-16 6.784236835346853e-16 0.06246499906561761 -2.39246456779894e-16 1.1601628464636932e-16 -2.39246456779894e-16 0.06246499906561728" free_energy=-14.126649820492155 pbc="T T T"
Al       0.00000000       0.00000000       0.00000000       0.00000000       0.00000000       0.00000000      -3.53166246
Al       2.17011762       2.17011762       0.00000000      -0.00000000      -0.00000000       0.00000000      -3.53166246
Al       2.17011762       0.00000000       2.17011762      -0.00000000       0.00000000      -0.00000000      -3.53166246
Al       0.00000000       2.17011762       2.17011762      -0.00000000      -0.00000000      -0.00000000      -3.53166246
