4
Lattice="3.7259338546484164 0.0 0.0 0.0 3.7259338546484164 0.0 0.0 0.0 3.7259338546484164" Properties=species:S:1:pos:R:3:forces:R:3:energies:R:1 n_minim_iter=1 energy=-13.890251213258656 stress="-0.15958019164440104 -9.974092691134271e-16 5.699234153033748e-17 -9.974092691134271e-16 -0.15958019164440063 -3.0864564570503905e-16 5.699234153033748e-17 -3.0864564570503905e-16 -0.15958019164440343" free_energy=-13.890251213258656 pbc="T T T"
Al       0.00000000       0.00000000       0.00000000      -0.00000000      -0.00000000      -0.00000000      -3.47256280
Al       1.86296693       1.86296693       0.00000000      -0.00000000       0.00000000      -0.00000000      -3.47256280
Al       1.86296693       0.00000000       1.86296693       0.00000000      -0.00000000       0.00000000      -3.47256280
Al       0.00000000       1.86296693       1.86296693      -0.00000000      -0.00000000      -0.00000000      -3.47256280
