4
Lattice="4.369562049707673 0.0 0.0 0.0 4.369562049707673 0.0 0.0 0.0 4.369562049707673" Properties=species:S:1:pos:R:3:forces:R:3:energies:R:1 n_minim_iter=1 energy=-14.020415980469064 stress="0.06475836406308554 -1.0084590360720433e-18 1.7050235249053105e-18 -1.0084590360720433e-18 0.0647583640630855 1.2995606134949012e-18 1.7050235249053105e-18 1.2995606134949012e-18 0.06475836406308542" free_energy=-14.020415980469064 pbc="T T T"
Al       0.00000000       0.00000000       0.00000000       0.00000000      -0.00000000       0.00000000      -3.50510400
Al       2.18478102       2.18478102       0.00000000      -0.00000000       0.00000000      -0.00000000      -3.50510400
Al       2.18478102       0.00000000       2.18478102      -0.00000000      -0.00000000      -0.00000000      -3.50510400
Al       0.00000000       2.18478102       2.18478102       0.00000000       0.00000000      -0.00000000      -3.50510400
