4
Lattice="3.879751629798043 0.0 0.0 0.0 3.879751629798043 0.0 0.0 0.0 3.879751629798043" Properties=species:S:1:pos:R:3:forces:R:3:energies:R:1 n_minim_iter=1 energy=-14.585812054324997 stress="-0.05623557867218725 -2.2110632601646947e-16 7.188276134461039e-16 -2.2110632601646947e-16 -0.0562355786721872 2.0379276353955868e-16 7.188276134461039e-16 2.0379276353955868e-16 -0.05623557867218925" free_energy=-14.585812054324997 pbc="T T T"
Al       0.00000000       0.00000000       0.00000000       0.00000000       0.00000000       0.00000000      -3.64645301
Al       1.93987581       1.93987581       0.00000000      -0.00000000      -0.00000000       0.00000000      -3.64645301
Al       1.93987581       0.00000000       1.93987581       0.00000000      -0.00000000      -0.00000000      -3.64645301
Al       0.00000000       1.93987581       1.93987581       0.00000000      -0.00000000      -0.00000000      -3.64645301
