4
Lattice="4.249787225015643 0.0 0.0 0.0 4.249787225015643 0.0 0.0 0.0 4.249787225015643" Properties=species:S:1:pos:R:3:forces:R:3:energies:R:1 n_minim_iter=1 energy=-14.414360448322162 stress="0.051425483150912436 -4.282899760996241e-18 1.1063216005317468e-17 -4.282899760996241e-18 0.05142548315091244 4.847926114689677e-18 1.1063216005317468e-17 4.847926114689677e-18 0.05142548315091246" free_energy=-14.414360448322162 pbc="T T T"
Al       0.00000000       0.00000000       0.00000000      -0.00000000      -0.00000000      -0.00000000      -3.60359011
Al       2.12489361       2.12489361       0.00000000       0.00000000       0.00000000      -0.00000000      -3.60359011
Al       2.12489361       0.00000000       2.12489361       0.00000000      -0.00000000       0.00000000      -3.60359011
Al       0.00000000       2.12489361       2.12489361      -0.00000000       0.00000000      -0.00000000      -3.60359011
