4
Lattice="4.18728127432746 0.0 0.0 0.0 4.18728127432746 0.0 0.0 0.0 4.18728127432746" Properties=species:S:1:pos:R:3:forces:R:3:energies:R:1 n_minim_iter=1 energy=-14.630056502278855 stress="0.03346592364617471 2.624749771181514e-16 2.711185663148849e-16 2.624749771181514e-16 0.03346592364617524 1.2109487130584573e-16 2.711185663148849e-16 1.2109487130584573e-16 0.03346592364618" free_energy=-14.630056502278855 pbc="T T T"
Al       0.00000000       0.00000000       0.00000000       0.00000000       0.00000000       0.00000000      -3.65751413
Al       2.09364064       2.09364064       0.00000000      -0.00000000      -0.00000000       0.00000000      -3.65751413
Al       2.09364064       0.00000000       2.09364064       0.00000000       0.00000000      -0.00000000      -3.65751413
Al       0.00000000       2.09364064       2.09364064       0.00000000      -0.00000000       0.00000000      -3.65751413
