4
Lattice="3.9875772384196018 0.0 0.0 0.0 3.9875772384196018 0.0 0.0 0.0 3.9875772384196018" Properties=species:S:1:pos:R:3:forces:R:3:energies:R:1 n_minim_iter=1 energy=-14.733434690669544 stress="-0.00637154698250609 5.007263732810965e-17 2.7863846671829175e-16 5.007263732810965e-17 -0.006371546982506355 1.661304972984661e-16 2.7863846671829175e-16 1.661304972984661e-16 -0.006371546982505437" free_energy=-14.733434690669544 pbc="T T T"
Al       0.00000000       0.00000000       0.00000000       0.00000000       0.00000000       0.00000000      -3.68335867
Al       1.99378862       1.99378862       0.00000000       0.00000000       0.00000000       0.00000000      -3.68335867
Al       1.99378862       0.00000000       1.99378862      -0.00000000       0.00000000      -0.00000000      -3.68335867
Al       0.00000000       1.99378862       1.99378862      -0.00000000      -0.00000000       0.00000000      -3.68335867
