4
Lattice="4.310506674610103 0.0 0.0 0.0 4.310506674610103 0.0 0.0 0.0 4.310506674610103" Properties=species:S:1:pos:R:3:forces:R:3:energies:R:1 n_minim_iter=1 energy=-14.32478803847951 stress="0.05581699759782009 1.6615573699177784e-16 3.0153124260179985e-16 1.6615573699177784e-16 0.05581699759782006 -2.5489084169024245e-16 3.0153124260179985e-16 -2.5489084169024245e-16 0.0558169975978211" free_energy=-14.32478803847951 pbc="T T T"
Al       0.00000000       0.00000000       0.00000000       0.00000000       0.00000000       0.00000000      -3.58119701
Al       2.15525334       2.15525334       0.00000000      -0.00000000      -0.00000000       0.00000000      -3.58119701
Al       2.15525334       0.00000000       2.15525334       0.00000000      -0.00000000       0.00000000      -3.58119701
Al       0.00000000       2.15525334       2.15525334       0.00000000      -0.00000000      -0.00000000      -3.58119701
