4
Lattice="4.18728127432746 0.0 0.0 0.0 4.18728127432746 0.0 0.0 0.0 4.18728127432746" Properties=species:S:1:pos:R:3:forces:R:3:energies:R:1 n_minim_iter=1 energy=-14.568358061333765 stress="0.04032670500518918 4.716696175742768e-16 4.4079914591007514e-16 4.716696175742768e-16 0.04032670500518826 2.3216059650716644e-16 4.4079914591007514e-16 2.3216059650716644e-16 0.040326705005188895" free_energy=-14.568358061333765 pbc="T T T"
Al       0.00000000       0.00000000       0.00000000      -0.00000000      -0.00000000      -0.00000000      -3.64208952
Al       2.09364064       2.09364064       0.00000000      -0.00000000       0.00000000      -0.00000000      -3.64208952
Al       2.09364064       0.00000000       2.09364064       0.00000000      -0.00000000       0.00000000      -3.64208952
Al       0.00000000       2.09364064       2.09364064      -0.00000000      -0.00000000      -0.00000000      -3.64208952
