4
Lattice="3.685431365786316 0.0 0.0 0.0 3.685431365786316 0.0 0.0 0.0 3.685431365786316" Properties=species:S:1:pos:R:3:forces:R:3:energies:R:1 n_minim_iter=1 energy=-13.598256155370699 stress="-0.19037496680560298 -2.7243311086188596e-16 -3.8639364616889986e-16 -2.7243311086188596e-16 -0.19037496680560217 -9.51446054318719e-17 -3.8639364616889986e-16 -9.51446054318719e-17 -0.19037496680560176" free_energy=-13.598256155370699 pbc="T T T"
Al       0.00000000       0.00000000       0.00000000      -0.00000000      -0.00000000       0.00000000      -3.39956404
Al       1.84271568       1.84271568       0.00000000      -0.00000000      -0.00000000      -0.00000000      -3.39956404
Al       1.84271568       0.00000000       1.84271568       0.00000000      -0.00000000      -0.00000000      -3.39956404
Al       0.00000000       1.84271568       1.84271568       0.00000000       0.00000000       0.00000000      -3.39956404
