4
Lattice="3.7655744240548117 0.0 0.0 0.0 3.7655744240548117 0.0 0.0 0.0 3.7655744240548117" Properties=species:S:1:pos:R:3:forces:R:3:energies:R:1 n_minim_iter=1 energy=-14.131362487092048 stress="-0.1297424793519217 -6.48469076057215e-17 9.719101301634813e-17 -6.48469076057215e-17 -0.1297424793519224 -2.84485632481429e-17 9.719101301634813e-17 -2.84485632481429e-17 -0.12974247935192307" free_energy=-14.131362487092048 pbc="T T T"
Al       0.00000000       0.00000000       0.00000000      -0.00000000       0.00000000       0.00000000      -3.53284062
Al       1.88278721       1.88278721       0.00000000       0.00000000       0.00000000       0.00000000      -3.53284062
Al       1.88278721       0.00000000       1.88278721      -0.00000000       0.00000000       0.00000000      -3.53284062
Al       0.00000000       1.88278721       1.88278721      -0.00000000      -0.00000000      -0.00000000      -3.53284062
