4
Lattice="3.9522870935094794 0.0 0.0 0.0 3.9522870935094794 0.0 0.0 0.0 3.9522870935094794" Properties=species:S:1:pos:R:3:forces:R:3:energies:R:1 n_minim_iter=1 energy=-14.711211494190717 stress="-0.020621284774942076 -2.932457232705455e-16 -3.924695620262653e-16 -2.932457232705455e-16 -0.020621284774942013 3.5510835753383293e-16 -3.924695620262653e-16 3.5510835753383293e-16 -0.020621284774942475" free_energy=-14.711211494190717 pbc="T T T"
Al       0.00000000       0.00000000       0.00000000      -0.00000000      -0.00000000      -0.00000000      -3.67780287
Al       1.97614355       1.97614355       0.00000000      -0.00000000      -0.00000000       0.00000000      -3.67780287
Al       1.97614355       0.00000000       1.97614355       0.00000000       0.00000000      -0.00000000      -3.67780287
Al       0.00000000       1.97614355       1.97614355      -0.00000000       0.00000000       0.00000000      -3.67780287
