4
Lattice="3.8424440148982013 0.0 0.0 0.0 3.8424440148982013 0.0 0.0 0.0 3.8424440148982013" Properties=species:S:1:pos:R:3:forces:R:3:energies:R:1 n_minim_iter=1 energy=-14.474389410780345 stress="-0.07778057619535596 1.0920420666619932e-18 -1.0339129646353126e-18 1.0920420666619932e-18 -0.07778057619535465 -9.412531872027358e-19 -1.0339129646353126e-18 -9.412531872027358e-19 -0.07778057619535643" free_energy=-14.474389410780345 pbc="T T T"
Al       0.00000000       0.00000000       0.00000000      -0.00000000       0.00000000      -0.00000000      -3.61859735
Al       1.92122201       1.92122201       0.00000000       0.00000000      -0.00000000      -0.00000000      -3.61859735
Al       1.92122201       0.00000000       1.92122201      -0.00000000      -0.00000000      -0.00000000      -3.61859735
Al       0.00000000       1.92122201       1.92122201      -0.00000000       0.00000000       0.00000000      -3.61859735
