4
Lattice="4.022253563629357 0.0 0.0 0.0 4.022253563629357 0.0 0.0 0.0 4.022253563629357" Properties=species:S:1:pos:R:3:forces:R:3:energies:R:1 n_minim_iter=1 energy=-14.733577992947405 stress="0.0058931897957169264 3.499628369563075e-16 1.3016708014942232e-16 3.499628369563075e-16 0.005893189795716232 2.432777468462455e-17 1.3016708014942232e-16 2.432777468462455e-17 0.005893189795715804" free_energy=-14.733577992947405 pbc="T T T"
Al       0.00000000       0.00000000       0.00000000       0.00000000      -0.00000000       0.00000000      -3.68339450
Al       2.01112678       2.01112678       0.00000000      -0.00000000      -0.00000000       0.00000000      -3.68339450
Al       2.01112678       0.00000000       2.01112678       0.00000000      -0.00000000      -0.00000000      -3.68339450
Al       0.00000000       2.01112678       2.01112678       0.00000000       0.00000000       0.00000000      -3.68339450
