4
Lattice="3.804397515780416 0.0 0.0 0.0 3.804397515780416 0.0 0.0 0.0 3.804397515780416" Properties=species:S:1:pos:R:3:forces:R:3:energies:R:1 n_minim_iter=1 energy=-14.324568830289827 stress="-0.10230227626278175 7.948795291716854e-18 2.7067127893401004e-18 7.948795291716854e-18 -0.10230227626278249 6.192024099593354e-18 2.7067127893401004e-18 6.192024099593354e-18 -0.10230227626278217" free_energy=-14.324568830289827 pbc="T T T"
Al       0.00000000       0.00000000       0.00000000       0.00000000      -0.00000000       0.00000000      -3.58114221
Al       1.90219876       1.90219876       0.00000000      -0.00000000      -0.00000000       0.00000000      -3.58114221
Al       1.90219876       0.00000000       1.90219876      -0.00000000       0.00000000      -0.00000000      -3.58114221
Al       0.00000000       1.90219876       1.90219876       0.00000000       0.00000000       0.00000000      -3.58114221
