4
Lattice="4.122851315705091 0.0 0.0 0.0 4.122851315705091 0.0 0.0 0.0 4.122851315705091" Properties=species:S:1:pos:R:3:forces:R:3:energies:R:1 n_minim_iter=1 energy=-14.67946619194889 stress="0.025572325861474746 -3.1141833716085824e-19 -3.753581598983937e-18 -3.1141833716085824e-19 0.02557232586147477 -3.9481889114749886e-18 -3.753581598983937e-18 -3.9481889114749886e-18 0.025572325861474163" free_energy=-14.67946619194889 pbc="T T T"
Al       0.00000000       0.00000000       0.00000000       0.00000000      -0.00000000      -0.00000000      -3.66986655
Al       2.06142566       2.06142566       0.00000000      -0.00000000       0.00000000      -0.00000000      -3.66986655
Al       2.06142566       0.00000000       2.06142566      -0.00000000      -0.00000000       0.00000000      -3.66986655
Al       0.00000000       2.06142566       2.06142566       0.00000000       0.00000000       0.00000000      -3.66986655
