4
Lattice="3.6854313657863167 0.0 0.0 0.0 3.6854313657863167 0.0 0.0 0.0 3.6854313657863167" Properties=species:S:1:pos:R:3:forces:R:3:energies:R:1 n_minim_iter=1 energy=-13.255981401435118 stress="-0.21927045434938275 2.5390706969745585e-17 6.763953276407139e-16 2.5390706969745585e-17 -0.2192704543493832 5.300150959239869e-16 6.763953276407139e-16 5.300150959239869e-16 -0.21927045434937142" free_energy=-13.255981401435118 pbc="T T T"
Al       0.00000000       0.00000000       0.00000000      -0.00000000      -0.00000000       0.00000000      -3.31399535
Al       1.84271568       1.84271568       0.00000000      -0.00000000      -0.00000000       0.00000000      -3.31399535
Al       1.84271568       0.00000000       1.84271568       0.00000000      -0.00000000       0.00000000      -3.31399535
Al       0.00000000       1.84271568       1.84271568      -0.00000000       0.00000000      -0.00000000      -3.31399535
