4
Lattice="4.310506674610103 0.0 0.0 0.0 4.310506674610103 0.0 0.0 0.0 4.310506674610103" Properties=species:S:1:pos:R:3:forces:R:3:energies:R:1 n_minim_iter=1 energy=-14.228490929867323 stress="0.05949010831545147 -3.9744895429385754e-18 -1.971000263800601e-18 -3.9744895429385754e-18 0.05949010831545155 -3.627940046006601e-18 -1.971000263800601e-18 -3.627940046006601e-18 0.05949010831545247" free_energy=-14.228490929867323 pbc="T T T"
Al       0.00000000       0.00000000       0.00000000      -0.00000000      -0.00000000       0.00000000      -3.55712273
Al       2.15525334       2.15525334       0.00000000      -0.00000000      -0.00000000       0.00000000      -3.55712273
Al       2.15525334       0.00000000       2.15525334       0.00000000       0.00000000      -0.00000000      -3.55712273
Al       0.00000000       2.15525334       2.15525334      -0.00000000       0.00000000      -0.00000000      -3.55712273
