4
Lattice="4.089867092147483 0.0 0.0 0.0 4.089867092147483 0.0 0.0 0.0 4.089867092147483" Properties=species:S:1:pos:R:3:forces:R:3:energies:R:1 n_minim_iter=1 energy=-14.714714447429174 stress="0.016455902774632214 1.021579269887944e-15 2.0512181764080224e-16 1.021579269887944e-15 0.016455902774632256 2.9570392379064964e-16 2.0512181764080224e-16 2.9570392379064964e-16 0.01645590277463422" free_energy=-14.714714447429174 pbc="T T T"
Al       0.00000000       0.00000000       0.00000000      -0.00000000      -0.00000000      -0.00000000      -3.67867861
Al       2.04493355       2.04493355       0.00000000       0.00000000       0.00000000       0.00000000      -3.67867861
Al       2.04493355       0.00000000       2.04493355       0.00000000       0.00000000      -0.00000000      -3.67867861
Al       0.00000000       2.04493355       2.04493355      -0.00000000       0.00000000       0.00000000      -3.67867861
