4
Lattice="4.218765774368375 0.0 0.0 0.0 4.218765774368375 0.0 0.0 0.0 4.218765774368375" Properties=species:S:1:pos:R:3:forces:R:3:energies:R:1 n_minim_iter=1 energy=-14.495983821521298 stress="0.04628164081234524 -5.79892824866169e-18 -1.617230985682543e-19 -5.79892824866169e-18 0.04628164081234517 -4.782383057661235e-18 -1.617230985682543e-19 -4.782383057661235e-18 0.046281640812345363" free_energy=-14.495983821521298 pbc="T T T"
Al       0.00000000       0.00000000       0.00000000      -0.00000000      -0.00000000      -0.00000000      -3.62399596
Al       2.10938289       2.10938289       0.00000000       0.00000000       0.00000000      -0.00000000      -3.62399596
Al       2.10938289       0.00000000       2.10938289       0.00000000      -0.00000000       0.00000000      -3.62399596
Al       0.00000000       2.10938289       2.10938289      -0.00000000       0.00000000       0.00000000      -3.62399596
