4
Lattice="3.9522870935094794 0.0 0.0 0.0 3.9522870935094794 0.0 0.0 0.0 3.9522870935094794" Properties=species:S:1:pos:R:3:forces:R:3:energies:R:1 n_minim_iter=1 energy=-14.66335048598948 stress="-0.03715066306450322 -1.1396741381707885e-17 4.969099044563023e-18 -1.1396741381707885e-17 -0.037150663064503285 -6.7015179744547886e-18 4.969099044563023e-18 -6.7015179744547886e-18 -0.03715066306450333" free_energy=-14.66335048598948 pbc="T T T"
Al       0.00000000       0.00000000       0.00000000      -0.00000000      -0.00000000      -0.00000000      -3.66583762
Al       1.97614355       1.97614355       0.00000000       0.00000000       0.00000000      -0.00000000      -3.66583762
Al       1.97614355       0.00000000       1.97614355       0.00000000      -0.00000000       0.00000000      -3.66583762
Al       0.00000000       1.97614355       1.97614355      -0.00000000       0.00000000       0.00000000      -3.66583762
