4
Lattice="4.0 0.0 0.0 0.0 4.0 0.0 0.0 0.0 4.0" Properties=species:S:1:pos:R:3:forces:R:3:energies:R:1 n_minim_iter=1 energy=-14.721873623816318 stress="-0.015298545648642024 -7.84728939837535e-18 1.6205990445595636e-18 -7.84728939837535e-18 -0.01529854564864202 5.746271514173175e-18 1.6205990445595636e-18 5.746271514173175e-18 -0.015298545648641913" free_energy=-14.721873623816318 pbc="T T T"
Al       0.00000000       0.00000000       0.00000000       0.00000000      -0.00000000      -0.00000000      -3.68046841
Al       2.00000000       2.00000000       0.00000000      -0.00000000       0.00000000      -0.00000000      -3.68046841
Al       2.00000000       0.00000000       2.00000000      -0.00000000      -0.00000000       0.00000000      -3.68046841
Al       0.00000000       2.00000000       2.00000000       0.00000000       0.00000000       0.00000000      -3.68046841
4
Lattice="4.056342083540259 0.0 0.0 0.0 4.056342083540259 0.0 0.0 0.0 4.056342083540259" Properties=species:S:1:pos:R:3:forces:R:3:energies:R:1 n_minim_iter=2 energy=-14.733577992947405 stress="0.0058931897957169264 3.499628369563075e-16 1.3016708014942232e-16 3.499628369563075e-16 0.005893189795716232 2.432777468462455e-17 1.3016708014942232e-16 2.432777468462455e-17 0.005893189795715804" free_energy=-14.733577992947405 pbc="T T T"
Al       0.00000000       0.00000000       0.00000000       0.00000000      -0.00000000       0.00000000      -3.68339450
Al       2.02817104       2.02817104       0.00000000      -0.00000000      -0.00000000       0.00000000      -3.68339450
Al       2.02817104       0.00000000       2.02817104       0.00000000      -0.00000000      -0.00000000      -3.68339450
Al       0.00000000       2.02817104       2.02817104       0.00000000       0.00000000       0.00000000      -3.68339450
